# T062: Example files - Sample device S2P
# Example RF device for impedance matching demonstration
# Simulated antenna at 2.4 GHz WiFi band
# Input impedance: ~(35 - j25) Ω at center frequency
#
# Hz S DB R 50
2000000000 -6.5 -125.0 -2.5 45.0 -2.5 45.0 -8.0 -80.0
2100000000 -7.2 -130.0 -2.3 42.0 -2.3 42.0 -8.5 -85.0
2200000000 -8.0 -135.0 -2.0 38.0 -2.0 38.0 -9.0 -90.0
2300000000 -8.5 -140.0 -1.8 35.0 -1.8 35.0 -9.5 -95.0
2400000000 -9.0 -145.0 -1.5 30.0 -1.5 30.0 -10.0 -100.0
2500000000 -8.5 -150.0 -1.8 25.0 -1.8 25.0 -9.5 -105.0
2600000000 -8.0 -155.0 -2.0 20.0 -2.0 20.0 -9.0 -110.0
2700000000 -7.5 -160.0 -2.2 15.0 -2.2 15.0 -8.5 -115.0
2800000000 -7.0 -165.0 -2.5 10.0 -2.5 10.0 -8.0 -120.0
