! Murata 1nH inductor S2P
! Simulated S-parameters for a 1nH inductor
! Frequency: 2.0 - 2.5 GHz
# GHz S MA R 50
2.000  0.1200 85.00  0.9800 -5.00  0.9800 -5.00  0.1200 85.00
2.050  0.1350 84.50  0.9750 -5.50  0.9750 -5.50  0.1350 84.50
2.100  0.1500 84.00  0.9700 -6.00  0.9700 -6.00  0.1500 84.00
2.150  0.1650 83.50  0.9650 -6.50  0.9650 -6.50  0.1650 83.50
2.200  0.1800 83.00  0.9600 -7.00  0.9600 -7.00  0.1800 83.00
2.250  0.1950 82.50  0.9550 -7.50  0.9550 -7.50  0.1950 82.50
2.300  0.2100 82.00  0.9500 -8.00  0.9500 -8.00  0.2100 82.00
2.350  0.2250 81.50  0.9450 -8.50  0.9450 -8.50  0.2250 81.50
2.400  0.2400 81.00  0.9400 -9.00  0.9400 -9.00  0.2400 81.00
2.450  0.2550 80.50  0.9350 -9.50  0.9350 -9.50  0.2550 80.50
2.500  0.2700 80.00  0.9300 -10.00  0.9300 -10.00  0.2700 80.00
