! Murata 10pF capacitor S2P
! Simulated S-parameters for a 10pF capacitor
! Frequency: 2.0 - 2.5 GHz
# GHz S MA R 50
2.000  0.9800 -175.00  0.1400 -85.00  0.1400 -85.00  0.9800 -175.00
2.050  0.9750 -176.00  0.1550 -84.50  0.1550 -84.50  0.9750 -176.00
2.100  0.9700 -177.00  0.1700 -84.00  0.1700 -84.00  0.9700 -177.00
2.150  0.9650 -178.00  0.1850 -83.50  0.1850 -83.50  0.9650 -178.00
2.200  0.9600 -179.00  0.2000 -83.00  0.2000 -83.00  0.9600 -179.00
2.250  0.9550 -180.00  0.2150 -82.50  0.2150 -82.50  0.9550 180.00
2.300  0.9500 179.00  0.2300 -82.00  0.2300 -82.00  0.9500 179.00
2.350  0.9450 178.00  0.2450 -81.50  0.2450 -81.50  0.9450 178.00
2.400  0.9400 177.00  0.2600 -81.00  0.2600 -81.00  0.9400 177.00
2.450  0.9350 176.00  0.2750 -80.50  0.2750 -80.50  0.9350 176.00
2.500  0.9300 175.00  0.2900 -80.00  0.2900 -80.00  0.9300 175.00
