! TDK 22pF capacitor S2P
! Simulated S-parameters for a 22pF capacitor
! Frequency: 2.0 - 2.5 GHz
# GHz S MA R 50
2.000  0.9600 -178.00  0.2000 -88.00  0.2000 -88.00  0.9600 -178.00
2.050  0.9550 -178.50  0.2100 -87.75  0.2100 -87.75  0.9550 -178.50
2.100  0.9500 -179.00  0.2200 -87.50  0.2200 -87.50  0.9500 -179.00
2.150  0.9450 -179.50  0.2300 -87.25  0.2300 -87.25  0.9450 -179.50
2.200  0.9400 180.00  0.2400 -87.00  0.2400 -87.00  0.9400 180.00
2.250  0.9350 179.50  0.2500 -86.75  0.2500 -86.75  0.9350 179.50
2.300  0.9300 179.00  0.2600 -86.50  0.2600 -86.50  0.9300 179.00
2.350  0.9250 178.50  0.2700 -86.25  0.2700 -86.25  0.9250 178.50
2.400  0.9200 178.00  0.2800 -86.00  0.2800 -86.00  0.9200 178.00
2.450  0.9150 177.50  0.2900 -85.75  0.2900 -85.75  0.9150 177.50
2.500  0.9100 177.00  0.3000 -85.50  0.3000 -85.50  0.9100 177.00
