! TDK 2.2nH inductor S2P
! Simulated S-parameters for a 2.2nH inductor
! Frequency: 2.0 - 2.5 GHz
# GHz S MA R 50
2.000  0.2500 87.00  0.9600 -3.00  0.9600 -3.00  0.2500 87.00
2.050  0.2650 86.75  0.9550 -3.25  0.9550 -3.25  0.2650 86.75
2.100  0.2800 86.50  0.9500 -3.50  0.9500 -3.50  0.2800 86.50
2.150  0.2950 86.25  0.9450 -3.75  0.9450 -3.75  0.2950 86.25
2.200  0.3100 86.00  0.9400 -4.00  0.9400 -4.00  0.3100 86.00
2.250  0.3250 85.75  0.9350 -4.25  0.9350 -4.25  0.3250 85.75
2.300  0.3400 85.50  0.9300 -4.50  0.9300 -4.50  0.3400 85.50
2.350  0.3550 85.25  0.9250 -4.75  0.9250 -4.75  0.3550 85.25
2.400  0.3700 85.00  0.9200 -5.00  0.9200 -5.00  0.3700 85.00
2.450  0.3850 84.75  0.9150 -5.25  0.9150 -5.25  0.3850 84.75
2.500  0.4000 84.50  0.9100 -5.50  0.9100 -5.50  0.4000 84.50
